                              Psi4 1.0rc90 Driver

  ==> Input File <==

--------------------------------------------------------------------------
molecule mol {
  1 2
  O
  H 1 0.96
  H 1 0.96 2 104.5
}
set e_convergence 13
set d_convergence 13
set r_convergence 13
set maxiter       100
set basis         sto-3g
set reference     uhf
set scf_type      pk
Escf, scfwfn  = energy('scf', return_wfn=True)

# call my python module
# note: you need meinsum/ in your PYTHONPATH to run this
# grep "@CCSD[T]" to see results

from meinsum.examples.ccsdt.parentheses import SpinOrbCCSDpT

basisname = psi4.get_global_option("BASIS")
basisset  = psi4.BasisSet.pyconstruct_orbital(mol, "BASIS", basisname)
mints     = psi4.MintsHelper(basisset)
ccsdpt  = SpinOrbCCSDpT(scfwfn, mints)
ccsdpt.ccsdpt_energy()

energy('ccsd(t)')
--------------------------------------------------------------------------

    Molecular point group: c2v
  Charge       = 1
  Multiplicity = 2
  Basis Set: STO-3G
  @UHF Final Energy:   -74.65670262366423
    Total Energy =                        -74.6567026236642306
    Molecular point group: c2v

    Geometry (in Angstrom), charge = 1, multiplicity = 2:

       Center              X                  Y                   Z               Mass
    ------------   -----------------  -----------------  -----------------  -----------------
           O          0.000000000000     0.000000000000    -0.065775570538    15.994914619560
           H          0.000000000000    -0.759061990794     0.521953018295     1.007825032070
           H          0.000000000000     0.759061990794     0.521953018295     1.007825032070

  Charge       = 1
  Multiplicity = 2
  Basis Set: STO-3G

    Orbital Energies (a.u.)
    -----------------------

    Alpha Occupied:

       1A1   -21.032775     2A1    -1.926378     1B2    -1.198781
       1B1    -1.114179     3A1    -1.067276

    Alpha Virtual:

       4A1     0.083696     2B2     0.197181

    Beta Occupied:

       1A1   -21.001873     2A1    -1.756076     1B2    -1.156455
       3A1    -1.007736

    Beta Virtual:

       1B1    -0.225943     4A1     0.115936     2B2     0.217515

    Final Occupation by Irrep:
             A1    A2    B1    B2
    DOCC [     3,    0,    0,    1 ]
    SOCC [     0,    0,    1,    0 ]

  Energy converged.

  @UHF Final Energy:   -74.65670262366417

   => Energetics <=

    Nuclear Repulsion Energy =              9.1681932603875769
    One-Electron Energy =                -116.3882627659870082
    Two-Electron Energy =                  32.5633668819352593
    DFT Exchange-Correlation Energy =       0.0000000000000000
    Empirical Dispersion Energy =           0.0000000000000000
    PCM Polarization Energy =               0.0000000000000000
    EFP Energy =                            0.0000000000000000
    Total Energy =                        -74.6567026236641595

    Alert: EFP and PCM quantities not currently incorporated into SCF psivars.
  Saving occupied orbitals to File 180.

  UHF NO Occupations:
  HONO-2 :    1 B2 1.9988347
  HONO-1 :    3 A1 1.9985357
  HONO-0 :    1 B1 1.0000000
  LUNO+0 :    4 A1 0.0014643
  LUNO+1 :    2 B2 0.0011653

*** tstop() called on knut at Sun Jun 19 19:17:44 2016
Module time:
	user time   =       0.04 seconds =       0.00 minutes
	system time =       0.07 seconds =       0.00 minutes
	total time  =          0 seconds =       0.00 minutes
Total time:
	user time   =       1.73 seconds =       0.03 minutes
	system time =       3.15 seconds =       0.05 minutes
	total time  =          1 seconds =       0.02 minutes

Properties will be evaluated at   0.000000,   0.000000,   0.000000 Bohr

Properties computed using the SCF density matrix

  Nuclear Dipole Moment: (a.u.)
     X:     0.0000      Y:     0.0000      Z:     0.9783

  Electronic Dipole Moment: (a.u.)
     X:     0.0000      Y:     0.0000      Z:     0.0896

  Dipole Moment: (a.u.)
     X:     0.0000      Y:     0.0000      Z:     1.0679     Total:     1.0679

  Dipole Moment: (Debye)
     X:     0.0000      Y:     0.0000      Z:     2.7143     Total:     2.7143

 MINTS: Wrapper to libmints.
   by Justin Turney

   Calculation information:
      Number of atoms:                   3
      Number of AO shells:               5
      Number of SO shells:               4
      Number of primitives:             15
      Number of atomic orbitals:         7
      Number of basis functions:         7

      Number of irreps:                  4
      Integral cutoff                 0.00e+00
      Number of functions per irrep: [   4    0    1    2 ]

 OEINTS: Overlap, kinetic, potential, dipole, and quadrupole integrals
         stored in file 35.

      Computing two-electron integrals...done
      Computed 138 non-zero two-electron integrals.
        Stored in file 33.

*** tstart() called on knut
*** at Sun Jun 19 19:17:44 2016

	Wfn Parameters:
	--------------------
	Wavefunction         = CCSD_T
	Number of irreps     = 4
	Number of MOs        = 7
	Number of active MOs = 7
	AO-Basis             = NONE
	Semicanonical        = false
	Reference            = UHF
	Print Level          = 1

	IRREP	# MOs	# FZDC	# DOCC	# SOCC	# VIRT	# FZVR
	-----	-----	------	------	------	------	------
	 A1	   4	    0	    3	    0	    1	    0
	 A2	   0	    0	    0	    0	    0	    0
	 B1	   1	    0	    0	    1	    0	    0
	 B2	   2	    0	    1	    0	    1	    0
	Transforming integrals...
	IWL integrals will be deleted.
	(OO|OO)...
	Presorting SO-basis two-electron integrals.
	Sorting File: SO Ints (nn|nn) nbuckets = 1
	Transforming the one-electron integrals and constructing Fock matrices
	Starting AA/AB first half-transformation.
	Sorting AA/AB half-transformed integrals.
	Starting BB first half-transformation.
	Sorting BB half-transformed integrals.
	First half integral transformation complete.
	Starting AA second half-transformation.
	Starting AB second half-transformation.
	Starting BB second half-transformation.
	Two-electron integral transformation complete.
	(OO|OV)...
	Starting AA second half-transformation.
	Starting AB second half-transformation.
	Starting BB second half-transformation.
	Two-electron integral transformation complete.
	(OO|VV)...
	Starting AA second half-transformation.
	Starting AB second half-transformation.
	Starting BB second half-transformation.
	Two-electron integral transformation complete.
	(OV|OO)...
	Starting AA/AB first half-transformation.
	Sorting AA/AB half-transformed integrals.
	Starting BB first half-transformation.
	Sorting BB half-transformed integrals.
	First half integral transformation complete.
	Starting AA second half-transformation.
	Starting AB second half-transformation.
	Starting BB second half-transformation.
	Two-electron integral transformation complete.
	(OV|OV)...
	Starting AA second half-transformation.
	Starting AB second half-transformation.
	Starting BB second half-transformation.
	Two-electron integral transformation complete.
	(OV|VV)...
	Starting AA second half-transformation.
	Starting AB second half-transformation.
	Starting BB second half-transformation.
	Two-electron integral transformation complete.
	(VV|OO)...
	Starting AA/AB first half-transformation.
	Sorting AA/AB half-transformed integrals.
	Starting BB first half-transformation.
	Sorting BB half-transformed integrals.
	First half integral transformation complete.
	Starting AA second half-transformation.
	Starting AB second half-transformation.
	Starting BB second half-transformation.
	Two-electron integral transformation complete.
	(VV|OV)...
	Starting AA second half-transformation.
	Starting AB second half-transformation.
	Starting BB second half-transformation.
	Two-electron integral transformation complete.
	(VV|VV)...
	Starting AA second half-transformation.
	Starting AB second half-transformation.
	Starting BB second half-transformation.
	Two-electron integral transformation complete.
	Frozen core energy     =      0.00000000000000

	Size of irrep 0 of <AB|CD> integrals:      0.000 (MW) /      0.000 (MB)
	Size of irrep 1 of <AB|CD> integrals:      0.000 (MW) /      0.000 (MB)
	Size of irrep 2 of <AB|CD> integrals:      0.000 (MW) /      0.000 (MB)
	Size of irrep 3 of <AB|CD> integrals:      0.000 (MW) /      0.000 (MB)
	Total:                                     0.000 (MW) /      0.000 (MB)

	Size of irrep 0 of <ab|cd> integrals:      0.000 (MW) /      0.000 (MB)
	Size of irrep 1 of <ab|cd> integrals:      0.000 (MW) /      0.000 (MB)
	Size of irrep 2 of <ab|cd> integrals:      0.000 (MW) /      0.000 (MB)
	Size of irrep 3 of <ab|cd> integrals:      0.000 (MW) /      0.000 (MB)
	Total:                                     0.000 (MW) /      0.000 (MB)

	Size of irrep 0 of <Ab|Cd> integrals:      0.000 (MW) /      0.000 (MB)
	Size of irrep 1 of <Ab|Cd> integrals:      0.000 (MW) /      0.000 (MB)
	Size of irrep 2 of <Ab|Cd> integrals:      0.000 (MW) /      0.000 (MB)
	Size of irrep 3 of <Ab|Cd> integrals:      0.000 (MW) /      0.000 (MB)
	Total:                                     0.000 (MW) /      0.000 (MB)

	Size of irrep 0 of <IA|BC> integrals:      0.000 (MW) /      0.000 (MB)
	Size of irrep 1 of <IA|BC> integrals:      0.000 (MW) /      0.000 (MB)
	Size of irrep 2 of <IA|BC> integrals:      0.000 (MW) /      0.000 (MB)
	Size of irrep 3 of <IA|BC> integrals:      0.000 (MW) /      0.000 (MB)
	Total:                                     0.000 (MW) /      0.000 (MB)

	Size of irrep 0 of <ia|bc> integrals:      0.000 (MW) /      0.000 (MB)
	Size of irrep 1 of <ia|bc> integrals:      0.000 (MW) /      0.000 (MB)
	Size of irrep 2 of <ia|bc> integrals:      0.000 (MW) /      0.000 (MB)
	Size of irrep 3 of <ia|bc> integrals:      0.000 (MW) /      0.000 (MB)
	Total:                                     0.000 (MW) /      0.000 (MB)

	Size of irrep 0 of <Ia|Bc> integrals:      0.000 (MW) /      0.000 (MB)
	Size of irrep 1 of <Ia|Bc> integrals:      0.000 (MW) /      0.000 (MB)
	Size of irrep 2 of <Ia|Bc> integrals:      0.000 (MW) /      0.000 (MB)
	Size of irrep 3 of <Ia|Bc> integrals:      0.000 (MW) /      0.000 (MB)
	Total:                                     0.000 (MW) /      0.000 (MB)

	Size of irrep 0 of <iA|bC> integrals:      0.000 (MW) /      0.000 (MB)
	Size of irrep 1 of <iA|bC> integrals:      0.000 (MW) /      0.000 (MB)
	Size of irrep 2 of <iA|bC> integrals:      0.000 (MW) /      0.000 (MB)
	Size of irrep 3 of <iA|bC> integrals:      0.000 (MW) /      0.000 (MB)
	Total:                                     0.000 (MW) /      0.000 (MB)

	Size of irrep 0 of tIjAb amplitudes:       0.000 (MW) /      0.000 (MB)
	Size of irrep 1 of tIjAb amplitudes:       0.000 (MW) /      0.000 (MB)
	Size of irrep 2 of tIjAb amplitudes:       0.000 (MW) /      0.000 (MB)
	Size of irrep 3 of tIjAb amplitudes:       0.000 (MW) /      0.000 (MB)
	Total:                                     0.000 (MW) /      0.000 (MB)

	Nuclear Rep. energy          =      9.16819326038758
	SCF energy                   =    -74.65670262366417
	One-electron energy          =   -116.38826276598701
	Two-electron (AA) energy     =      7.70161816859190
	Two-electron (BB) energy     =      4.52770179528693
	Two-electron (AB) energy     =     20.33404691805646
	Two-electron energy          =     32.56336688193529
	Reference energy             =    -74.65670262366413

*** tstop() called on knut at Sun Jun 19 19:17:44 2016
Module time:
	user time   =       0.03 seconds =       0.00 minutes
	system time =       0.08 seconds =       0.00 minutes
	total time  =          0 seconds =       0.00 minutes
Total time:
	user time   =       1.77 seconds =       0.03 minutes
	system time =       3.28 seconds =       0.05 minutes
	total time  =          1 seconds =       0.02 minutes

*** tstart() called on knut
*** at Sun Jun 19 19:17:44 2016

            **************************
            *                        *
            *        CCENERGY        *
            *                        *
            **************************

    Nuclear Rep. energy (wfn)     =    9.168193260387577
    SCF energy          (wfn)     =  -74.656702623664174
    Reference energy    (file100) =  -74.656702623664131

    Input parameters:
    -----------------
    Wave function   =     CCSD_T
    Reference wfn   =     UHF
    Brueckner       =     No
    Memory (Mbytes) =     256.0
    Maxiter         =    100
    R_Convergence   =     1.0e-13
    E_Convergence   =     1.0e-13
    Restart         =     Yes
    DIIS            =     Yes
    AO Basis        =     NONE
    ABCD            =     NEW
    Cache Level     =     2
    Cache Type      =     LRU
    Print Level     =     1
    Num. of threads =     1
    # Amps to Print =     10
    Print MP2 Amps? =     No
    Analyze T2 Amps =     No
    Print Pair Ener =     No
    Local CC        =     No
    SCS-MP2         =     False
    SCSN-MP2        =     False
    SCS-CCSD        =     False

MP2 correlation energy -0.0277788966804086
                Solving CC Amplitude Equations
                ------------------------------
  Iter             Energy              RMS        T1Diag      D1Diag    New D1Diag    D2Diag
  ----     ---------------------    ---------   ----------  ----------  ----------   --------
     0        -0.027778896680409    0.000e+00    0.000000    0.000000    0.000000    0.000000
     1        -0.034934732602960    3.147e-02    0.004665    0.000000    0.000000    0.000000
     2        -0.038747012523563    1.335e-02    0.007995    0.000000    0.000000    0.000000
     3        -0.038978824770876    3.861e-03    0.008374    0.000000    0.000000    0.000000
     4        -0.039106726771763    1.448e-03    0.008426    0.000000    0.000000    0.000000
     5        -0.039098911698904    3.554e-04    0.008402    0.000000    0.000000    0.000000
     6        -0.039104365572791    8.969e-05    0.008397    0.000000    0.000000    0.000000
     7        -0.039103240273724    2.614e-05    0.008396    0.000000    0.000000    0.000000
     8        -0.039103389416124    8.263e-06    0.008398    0.000000    0.000000    0.000000
     9        -0.039103379724400    6.463e-07    0.008398    0.000000    0.000000    0.000000
    10        -0.039103381636056    1.606e-07    0.008398    0.000000    0.000000    0.000000
    11        -0.039103380108398    3.045e-08    0.008398    0.000000    0.000000    0.000000
    12        -0.039103380225880    7.017e-09    0.008398    0.000000    0.000000    0.000000
    13        -0.039103380086819    1.485e-09    0.008398    0.000000    0.000000    0.000000
    14        -0.039103380076729    2.608e-10    0.008398    0.000000    0.000000    0.000000
    15        -0.039103380086114    8.926e-11    0.008398    0.000000    0.000000    0.000000
    16        -0.039103380088481    3.655e-11    0.008398    0.000000    0.000000    0.000000
    17        -0.039103380088114    1.534e-11    0.008398    0.000000    0.000000    0.000000
    18        -0.039103380088110    6.316e-12    0.008398    0.000000    0.000000    0.000000
    19        -0.039103380088133    1.312e-12    0.008398    0.000000    0.000000    0.000000
    20        -0.039103380088126    3.330e-13    0.008398    0.000000    0.000000    0.000000
    21        -0.039103380088123    6.501e-14    0.008398    0.000000    0.000000    0.000000

    Iterations converged.

    Largest TIA Amplitudes:
              2   0         0.0145238108
              4   1        -0.0143735951
              1   0        -0.0080904486
              0   0         0.0000772061

    Largest Tia Amplitudes:
              2   0         0.0107934172
              3   2        -0.0058642739
              1   0        -0.0009072698
              0   0         0.0000037101

    Largest TIJAB Amplitudes:
      4   2   1   0         0.0107053738
      4   1   1   0        -0.0103167845
      4   0   1   0        -0.0004432218

    Largest Tijab Amplitudes:
      3   1   2   0        -0.0122202922
      3   2   2   0         0.0111257518
      3   0   2   0        -0.0004837576

    Largest TIjAb Amplitudes:
      4   3   1   2        -0.0727969606
      3   1   0   1        -0.0410167961
      2   3   0   2         0.0373421711
      4   3   0   0        -0.0350667408
      3   3   1   1        -0.0346754570
      4   2   1   0         0.0339243206
      4   1   1   0        -0.0317587339
      2   2   0   0        -0.0313017815
      2   1   0   0         0.0297600462
      1   1   0   0        -0.0293484054

    SCF energy       (wfn)                    =  -74.656702623664174
    Reference energy (file100)                =  -74.656702623664131

    Opposite-spin MP2 correlation energy      =   -0.026134397245455
    Same-spin MP2 correlation energy          =   -0.001644499434954
    MP2 correlation energy                    =   -0.027778896680409
      * MP2 total energy                      =  -74.684481520344534

    Opposite-spin CCSD correlation energy     =   -0.037567885768607
    Same-spin CCSD correlation energy         =   -0.001535494319516
    CCSD correlation energy                   =   -0.039103380088123
      * CCSD total energy                     =  -74.695806003752253

*** tstop() called on knut at Sun Jun 19 19:17:45 2016
Module time:
	user time   =       0.34 seconds =       0.01 minutes
	system time =       1.16 seconds =       0.02 minutes
	total time  =          1 seconds =       0.02 minutes
Total time:
	user time   =       2.11 seconds =       0.04 minutes
	system time =       4.44 seconds =       0.07 minutes
	total time  =          2 seconds =       0.03 minutes

*** tstart() called on knut
*** at Sun Jun 19 19:17:45 2016

            **************************
            *                        *
            *        CCTRIPLES       *
            *                        *
            **************************

    Wave function   =    CCSD_T
    Reference wfn   =      UHF

    Nuclear Rep. energy (wfn)                =    9.168193260387577
    SCF energy          (wfn)                =  -74.656702623664174

      * CCSD(T) total energy                     =  -74.695930622861781
*** Psi4 exiting successfully. Buy a developer a beer!
